18
Lattice="7.39974528 -6.2e-07 1.54e-06 -3.69987316 6.4083361 -5.815e-05 2.76e-06 -0.00028249 20.0" Properties=species:S:1:pos:R:3:forces:R:3 energy=-167.67959255 stress="-1.0536790876133599e-05 3.9599023713328676e-05 -1.4854791719602155e-09 3.9599023713328676e-05 3.087345012892601e-05 -2.79245118292017e-08 -1.4854791719602155e-09 -2.79245118292017e-08 0.0006093726480121161" free_energy=-167.67910311 pbc="T T T"
C        0.00002889       0.71185991       9.99999802       0.00009415       0.00021228      -0.00006489
C        1.23325203       1.42393473      10.00000131       0.00011686       0.00021757      -0.00012974
C       -1.23326045       2.84798718       9.99997524       0.00007180       0.00001968       0.00000616
C       -0.00003927       3.56005616       9.99995892       0.00012379       0.00007495       0.00019309
C       -2.46653063       4.98411739       9.99996606      -0.00022440      -0.00023047      -0.00006891
C       -1.23330619       5.69619150       9.99995394      -0.00020165      -0.00023914       0.00002824
C        2.46663238       0.71188880       9.99999254      -0.00020490      -0.00015810       0.00000739
C        3.69985008       1.42397201       9.99996982      -0.00012474      -0.00028775       0.00022383
C        1.23331492       2.84796749       9.99997895       0.00014394       0.00028226      -0.00004528
C        2.46653447       3.56005147       9.99997004       0.00022705       0.00016228       0.00003837
C        0.00004304       4.98409475       9.99996397      -0.00011840       0.00008861      -0.00007835
C        1.23325919       5.69617284       9.99996125       0.00001114       0.00002468      -0.00012708
C        4.93320046       0.71187610       9.99999145      -0.00000888      -0.00000308      -0.00001960
C        6.16641835       1.42394822       9.99998493       0.00006230       0.00002814       0.00005003
C        3.69991286       2.84800637       9.99998047      -0.00006539      -0.00025718      -0.00006885
C        4.93313526       3.56008363       9.99998835      -0.00004003      -0.00028649      -0.00014834
C        2.46661279       4.98408506       9.99995608       0.00004738       0.00018485       0.00000571
C        3.69983575       5.69616302       9.99993977       0.00008996       0.00016691       0.00019825
